# y+ ()       
# Time        	patch         	min           	max           	average       
0             	walls	1.443376e+02	1.443376e+02	1.443376e+02
100           	walls	4.179884e+01	1.079807e+02	5.026252e+01
