# y+ ()       
# Time        	patch         	min           	max           	average       
0             	walls	9.467529e+00	9.467529e+00	9.467529e+00
