# y+ ()       
# Time        	patch         	min           	max           	average       
0             	walls	4.508354e+00	4.508354e+00	4.508354e+00
