# y+ ()       
# Time        	patch         	min           	max           	average       
0             	walls	4.828221e+00	4.828221e+00	4.828221e+00
