# y+ ()       
# Time        	patch         	min           	max           	average       
0             	walls	2.290652e+00	2.290652e+00	2.290652e+00
