# y+ ()       
# Time        	patch         	min           	max           	average       
0             	walls	3.562894e+00	3.562894e+00	3.562894e+00
