# y+ ()       
# Time        	patch         	min           	max           	average       
0             	walls	4.195558e+00	4.195558e+00	4.195558e+00
