# y+ ()       
# Time        	patch         	min           	max           	average       
0             	walls	5.253099e+00	5.253099e+00	5.253099e+00
