# y+ ()       
# Time        	patch         	min           	max           	average       
0             	walls	2.567865e+00	2.567865e+00	2.567865e+00
