# y+ ()       
# Time        	patch         	min           	max           	average       
0             	walls	4.511890e+00	4.511890e+00	4.511890e+00
