# y+ ()       
# Time        	patch         	min           	max           	average       
0             	walls	3.399503e+00	3.399503e+00	3.399503e+00
