# y+ ()       
# Time        	patch         	min           	max           	average       
0             	walls	2.845078e+00	2.845078e+00	2.845078e+00
