# y+ ()       
# Time        	patch         	min           	max           	average       
0             	walls	3.953928e+00	3.953928e+00	3.953928e+00
