# y+ ()       
# Time        	patch         	min           	max           	average       
0             	walls	3.676716e+00	3.676716e+00	3.676716e+00
