# y+ ()       
# Time        	patch         	min           	max           	average       
0             	walls	5.144553e+00	5.144553e+00	5.144553e+00
