# y+ ()       
# Time        	patch         	min           	max           	average       
0             	walls	5.621397e+00	5.621397e+00	5.621397e+00
