# y+ ()       
# Time        	patch         	min           	max           	average       
0             	walls	7.607517e+00	7.607517e+00	7.607517e+00
