# y+ ()       
# Time        	patch         	min           	max           	average       
0             	walls	3.879226e+00	3.879226e+00	3.879226e+00
