# y+ ()       
# Time        	patch         	min           	max           	average       
0             	walls	5.989696e+00	5.989696e+00	5.989696e+00
