# y+ ()       
# Time        	patch         	min           	max           	average       
0             	walls	3.122290e+00	3.122290e+00	3.122290e+00
