# y+ ()       
# Time        	patch         	min           	max           	average       
0             	walls	6.357994e+00	6.357994e+00	6.357994e+00
