# y+ ()       
# Time        	patch         	min           	max           	average       
0             	walls	4.231141e+00	4.231141e+00	4.231141e+00
